36
	Energy:       2.7506011
C          1.05350       -2.09428       -0.25024
C          0.40477       -1.87021        1.12674
C          1.49996       -0.85981       -1.00436
C          0.25752       -0.41995        1.53915
O          2.37902       -0.14644       -0.24187
O          1.22579       -0.60259       -2.16889
O          0.98258       -0.18106        2.66877
O         -0.40290        0.42120        0.94513
C          0.89079        1.16082        3.14645
C          2.85165        1.04813       -0.86638
C         -0.05690       -2.84132       -1.00434
C         -0.15673       -4.27915       -0.49139
C         -0.76592       -4.08089        0.89985
C         -0.96832       -2.55276        0.94949
O         -1.26670       -2.28252       -0.43929
H          1.94255       -2.73338       -0.17121
H          0.98032       -2.38773        1.90547
H         -0.14818        1.41730        3.37683
H          2.01438        1.69724       -1.14209
H         -0.85051       -4.85816       -1.11184
H          0.80428       -4.80101       -0.47145
H         -1.71972       -4.61828        0.95480
H         -0.12080       -4.45344        1.70174
H          1.47572        1.23321        4.06747
H          1.30972        1.85651        2.41293
H          3.46062        0.80400       -1.74198
H          3.47715        1.58124       -0.14508
H         -0.04516       -2.76363       -2.09391
C         -2.07563       -2.11348        1.90016
O         -1.60235       -2.21157        3.24360
H         -2.96390       -2.74604        1.78327
H         -2.39483       -1.09059        1.66709
C         -2.38718       -1.42712        4.13260
H         -2.01735       -1.58574        5.14894
H         -3.43902       -1.72339        4.08624
H         -2.28156       -0.36514        3.88894
